VARIABLES="X","Y","Z","ro","ro*u","ro*v","ro*w","ro*E"
TITLE="Conservative variables vector field t = 0.202837021134844"
ZONE T="Numerical", I=10, J=10, K=10, F=POINT
-0.000000 -0.000000 -0.000000 1.000000 0.750000 0.000000 0.000000 2.781250
-0.000000 -0.000000 0.100000 1.000000 0.750000 0.000000 0.000000 2.781250
-0.000000 -0.000000 0.200000 1.000000 0.750000 0.000000 0.000000 2.781250
-0.000000 -0.000000 0.300000 1.000000 0.750000 0.000000 0.000000 2.781250
-0.000000 -0.000000 0.400000 1.000000 0.750000 0.000000 0.000000 2.781250
-0.000000 -0.000000 0.500000 1.000000 0.750000 0.000000 0.000000 2.781250
-0.000000 -0.000000 0.600000 1.000000 0.750000 0.000000 0.000000 2.781250
-0.000000 -0.000000 0.700000 1.000000 0.750000 0.000000 0.000000 2.781250
-0.000000 -0.000000 0.800000 1.000000 0.750000 0.000000 0.000000 2.781250
-0.000000 -0.000000 0.900000 1.000000 0.750000 0.000000 0.000000 2.781250
-0.000000 0.100000 -0.000000 1.000000 0.750000 0.000000 0.000000 2.781250
-0.000000 0.100000 0.100000 1.000000 0.750000 0.000000 0.000000 2.781250
-0.000000 0.100000 0.200000 1.000000 0.750000 0.000000 0.000000 2.781250
-0.000000 0.100000 0.300000 1.000000 0.750000 0.000000 0.000000 2.781250
-0.000000 0.100000 0.400000 1.000000 0.750000 0.000000 0.000000 2.781250
-0.000000 0.100000 0.500000 1.000000 0.750000 0.000000 0.000000 2.781250
-0.000000 0.100000 0.600000 1.000000 0.750000 0.000000 0.000000 2.781250
-0.000000 0.100000 0.700000 1.000000 0.750000 0.000000 0.000000 2.781250
-0.000000 0.100000 0.800000 1.000000 0.750000 0.000000 0.000000 2.781250
-0.000000 0.100000 0.900000 1.000000 0.750000 0.000000 0.000000 2.781250
-0.000000 0.200000 -0.000000 1.000000 0.750000 0.000000 0.000000 2.781250
-0.000000 0.200000 0.100000 1.000000 0.750000 0.000000 0.000000 2.781250
-0.000000 0.200000 0.200000 1.000000 0.750000 0.000000 0.000000 2.781250
-0.000000 0.200000 0.300000 1.000000 0.750000 0.000000 0.000000 2.781250
-0.000000 0.200000 0.400000 1.000000 0.750000 0.000000 0.000000 2.781250
-0.000000 0.200000 0.500000 1.000000 0.750000 0.000000 0.000000 2.781250
-0.000000 0.200000 0.600000 1.000000 0.750000 0.000000 0.000000 2.781250
-0.000000 0.200000 0.700000 1.000000 0.750000 0.000000 0.000000 2.781250
-0.000000 0.200000 0.800000 1.000000 0.750000 0.000000 0.000000 2.781250
-0.000000 0.200000 0.900000 1.000000 0.750000 0.000000 0.000000 2.781250
-0.000000 0.300000 -0.000000 1.000000 0.750000 0.000000 0.000000 2.781250
-0.000000 0.300000 0.100000 1.000000 0.750000 0.000000 0.000000 2.781250
-0.000000 0.300000 0.200000 1.000000 0.750000 0.000000 0.000000 2.781250
-0.000000 0.300000 0.300000 1.000000 0.750000 0.000000 0.000000 2.781250
-0.000000 0.300000 0.400000 1.000000 0.750000 0.000000 0.000000 2.781250
-0.000000 0.300000 0.500000 1.000000 0.750000 0.000000 0.000000 2.781250
-0.000000 0.300000 0.600000 1.000000 0.750000 0.000000 0.000000 2.781250
-0.000000 0.300000 0.700000 1.000000 0.750000 0.000000 0.000000 2.781250
-0.000000 0.300000 0.800000 1.000000 0.750000 0.000000 0.000000 2.781250
-0.000000 0.300000 0.900000 1.000000 0.750000 0.000000 0.000000 2.781250
-0.000000 0.400000 -0.000000 1.000000 0.750000 0.000000 0.000000 2.781250
-0.000000 0.400000 0.100000 1.000000 0.750000 0.000000 0.000000 2.781250
-0.000000 0.400000 0.200000 1.000000 0.750000 0.000000 0.000000 2.781250
-0.000000 0.400000 0.300000 1.000000 0.750000 0.000000 0.000000 2.781250
-0.000000 0.400000 0.400000 1.000000 0.750000 0.000000 0.000000 2.781250
-0.000000 0.400000 0.500000 1.000000 0.750000 0.000000 0.000000 2.781250
-0.000000 0.400000 0.600000 1.000000 0.750000 0.000000 0.000000 2.781250
-0.000000 0.400000 0.700000 1.000000 0.750000 0.000000 0.000000 2.781250
-0.000000 0.400000 0.800000 1.000000 0.750000 0.000000 0.000000 2.781250
-0.000000 0.400000 0.900000 1.000000 0.750000 0.000000 0.000000 2.781250
-0.000000 0.500000 -0.000000 1.000000 0.750000 0.000000 0.000000 2.781250
-0.000000 0.500000 0.100000 1.000000 0.750000 0.000000 0.000000 2.781250
-0.000000 0.500000 0.200000 1.000000 0.750000 0.000000 0.000000 2.781250
-0.000000 0.500000 0.300000 1.000000 0.750000 0.000000 0.000000 2.781250
-0.000000 0.500000 0.400000 1.000000 0.750000 0.000000 0.000000 2.781250
-0.000000 0.500000 0.500000 1.000000 0.750000 0.000000 0.000000 2.781250
-0.000000 0.500000 0.600000 1.000000 0.750000 0.000000 0.000000 2.781250
-0.000000 0.500000 0.700000 1.000000 0.750000 0.000000 0.000000 2.781250
-0.000000 0.500000 0.800000 1.000000 0.750000 0.000000 0.000000 2.781250
-0.000000 0.500000 0.900000 1.000000 0.750000 0.000000 0.000000 2.781250
-0.000000 0.600000 -0.000000 1.000000 0.750000 0.000000 0.000000 2.781250
-0.000000 0.600000 0.100000 1.000000 0.750000 0.000000 0.000000 2.781250
-0.000000 0.600000 0.200000 1.000000 0.750000 0.000000 0.000000 2.781250
-0.000000 0.600000 0.300000 1.000000 0.750000 0.000000 0.000000 2.781250
-0.000000 0.600000 0.400000 1.000000 0.750000 0.000000 0.000000 2.781250
-0.000000 0.600000 0.500000 1.000000 0.750000 0.000000 0.000000 2.781250
-0.000000 0.600000 0.600000 1.000000 0.750000 0.000000 0.000000 2.781250
-0.000000 0.600000 0.700000 1.000000 0.750000 0.000000 0.000000 2.781250
-0.000000 0.600000 0.800000 1.000000 0.750000 0.000000 0.000000 2.781250
-0.000000 0.600000 0.900000 1.000000 0.750000 0.000000 0.000000 2.781250
-0.000000 0.700000 -0.000000 1.000000 0.750000 0.000000 0.000000 2.781250
-0.000000 0.700000 0.100000 1.000000 0.750000 0.000000 0.000000 2.781250
-0.000000 0.700000 0.200000 1.000000 0.750000 0.000000 0.000000 2.781250
-0.000000 0.700000 0.300000 1.000000 0.750000 0.000000 0.000000 2.781250
-0.000000 0.700000 0.400000 1.000000 0.750000 0.000000 0.000000 2.781250
-0.000000 0.700000 0.500000 1.000000 0.750000 0.000000 0.000000 2.781250
-0.000000 0.700000 0.600000 1.000000 0.750000 0.000000 0.000000 2.781250
-0.000000 0.700000 0.700000 1.000000 0.750000 0.000000 0.000000 2.781250
-0.000000 0.700000 0.800000 1.000000 0.750000 0.000000 0.000000 2.781250
-0.000000 0.700000 0.900000 1.000000 0.750000 0.000000 0.000000 2.781250
-0.000000 0.800000 -0.000000 1.000000 0.750000 0.000000 0.000000 2.781250
-0.000000 0.800000 0.100000 1.000000 0.750000 0.000000 0.000000 2.781250
-0.000000 0.800000 0.200000 1.000000 0.750000 0.000000 0.000000 2.781250
-0.000000 0.800000 0.300000 1.000000 0.750000 0.000000 0.000000 2.781250
-0.000000 0.800000 0.400000 1.000000 0.750000 0.000000 0.000000 2.781250
-0.000000 0.800000 0.500000 1.000000 0.750000 0.000000 0.000000 2.781250
-0.000000 0.800000 0.600000 1.000000 0.750000 0.000000 0.000000 2.781250
-0.000000 0.800000 0.700000 1.000000 0.750000 0.000000 0.000000 2.781250
-0.000000 0.800000 0.800000 1.000000 0.750000 0.000000 0.000000 2.781250
-0.000000 0.800000 0.900000 1.000000 0.750000 0.000000 0.000000 2.781250
-0.000000 0.900000 -0.000000 1.000000 0.750000 0.000000 0.000000 2.781250
-0.000000 0.900000 0.100000 1.000000 0.750000 0.000000 0.000000 2.781250
-0.000000 0.900000 0.200000 1.000000 0.750000 0.000000 0.000000 2.781250
-0.000000 0.900000 0.300000 1.000000 0.750000 0.000000 0.000000 2.781250
-0.000000 0.900000 0.400000 1.000000 0.750000 0.000000 0.000000 2.781250
-0.000000 0.900000 0.500000 1.000000 0.750000 0.000000 0.000000 2.781250
-0.000000 0.900000 0.600000 1.000000 0.750000 0.000000 0.000000 2.781250
-0.000000 0.900000 0.700000 1.000000 0.750000 0.000000 0.000000 2.781250
-0.000000 0.900000 0.800000 1.000000 0.750000 0.000000 0.000000 2.781250
-0.000000 0.900000 0.900000 1.000000 0.750000 0.000000 0.000000 2.781250
0.100000 -0.000000 -0.000000 1.000000 0.750000 0.000000 0.000000 2.781250
0.100000 -0.000000 0.100000 1.000000 0.750000 0.000000 0.000000 2.781250
0.100000 -0.000000 0.200000 1.000000 0.750000 0.000000 0.000000 2.781250
0.100000 -0.000000 0.300000 1.000000 0.750000 0.000000 0.000000 2.781250
0.100000 -0.000000 0.400000 1.000000 0.750000 0.000000 0.000000 2.781250
0.100000 -0.000000 0.500000 1.000000 0.750000 0.000000 0.000000 2.781250
0.100000 -0.000000 0.600000 1.000000 0.750000 0.000000 0.000000 2.781250
0.100000 -0.000000 0.700000 1.000000 0.750000 0.000000 0.000000 2.781250
0.100000 -0.000000 0.800000 1.000000 0.750000 0.000000 0.000000 2.781250
0.100000 -0.000000 0.900000 1.000000 0.750000 0.000000 0.000000 2.781250
0.100000 0.100000 -0.000000 1.000000 0.750000 0.000000 0.000000 2.781250
0.100000 0.100000 0.100000 1.000000 0.750000 0.000000 0.000000 2.781250
0.100000 0.100000 0.200000 1.000000 0.750000 0.000000 0.000000 2.781250
0.100000 0.100000 0.300000 1.000000 0.750000 0.000000 0.000000 2.781250
0.100000 0.100000 0.400000 1.000000 0.750000 0.000000 0.000000 2.781250
0.100000 0.100000 0.500000 1.000000 0.750000 0.000000 0.000000 2.781250
0.100000 0.100000 0.600000 1.000000 0.750000 0.000000 0.000000 2.781250
0.100000 0.100000 0.700000 1.000000 0.750000 0.000000 0.000000 2.781250
0.100000 0.100000 0.800000 1.000000 0.750000 0.000000 0.000000 2.781250
0.100000 0.100000 0.900000 1.000000 0.750000 0.000000 0.000000 2.781250
0.100000 0.200000 -0.000000 1.000000 0.750000 0.000000 0.000000 2.781250
0.100000 0.200000 0.100000 1.000000 0.750000 0.000000 0.000000 2.781250
0.100000 0.200000 0.200000 1.000000 0.750000 0.000000 0.000000 2.781250
0.100000 0.200000 0.300000 1.000000 0.750000 0.000000 0.000000 2.781250
0.100000 0.200000 0.400000 1.000000 0.750000 0.000000 0.000000 2.781250
0.100000 0.200000 0.500000 1.000000 0.750000 0.000000 0.000000 2.781250
0.100000 0.200000 0.600000 1.000000 0.750000 0.000000 0.000000 2.781250
0.100000 0.200000 0.700000 1.000000 0.750000 0.000000 0.000000 2.781250
0.100000 0.200000 0.800000 1.000000 0.750000 0.000000 0.000000 2.781250
0.100000 0.200000 0.900000 1.000000 0.750000 0.000000 0.000000 2.781250
0.100000 0.300000 -0.000000 1.000000 0.750000 0.000000 0.000000 2.781250
0.100000 0.300000 0.100000 1.000000 0.750000 0.000000 0.000000 2.781250
0.100000 0.300000 0.200000 1.000000 0.750000 0.000000 0.000000 2.781250
0.100000 0.300000 0.300000 1.000000 0.750000 0.000000 0.000000 2.781250
0.100000 0.300000 0.400000 1.000000 0.750000 0.000000 0.000000 2.781250
0.100000 0.300000 0.500000 1.000000 0.750000 0.000000 0.000000 2.781250
0.100000 0.300000 0.600000 1.000000 0.750000 0.000000 0.000000 2.781250
0.100000 0.300000 0.700000 1.000000 0.750000 0.000000 0.000000 2.781250
0.100000 0.300000 0.800000 1.000000 0.750000 0.000000 0.000000 2.781250
0.100000 0.300000 0.900000 1.000000 0.750000 0.000000 0.000000 2.781250
0.100000 0.400000 -0.000000 1.000000 0.750000 0.000000 0.000000 2.781250
0.100000 0.400000 0.100000 1.000000 0.750000 0.000000 0.000000 2.781250
0.100000 0.400000 0.200000 1.000000 0.750000 0.000000 0.000000 2.781250
0.100000 0.400000 0.300000 1.000000 0.750000 0.000000 0.000000 2.781250
0.100000 0.400000 0.400000 1.000000 0.750000 0.000000 0.000000 2.781250
0.100000 0.400000 0.500000 1.000000 0.750000 0.000000 0.000000 2.781250
0.100000 0.400000 0.600000 1.000000 0.750000 0.000000 0.000000 2.781250
0.100000 0.400000 0.700000 1.000000 0.750000 0.000000 0.000000 2.781250
0.100000 0.400000 0.800000 1.000000 0.750000 0.000000 0.000000 2.781250
0.100000 0.400000 0.900000 1.000000 0.750000 0.000000 0.000000 2.781250
0.100000 0.500000 -0.000000 1.000000 0.750000 0.000000 0.000000 2.781250
0.100000 0.500000 0.100000 1.000000 0.750000 0.000000 0.000000 2.781250
0.100000 0.500000 0.200000 1.000000 0.750000 0.000000 0.000000 2.781250
0.100000 0.500000 0.300000 1.000000 0.750000 0.000000 0.000000 2.781250
0.100000 0.500000 0.400000 1.000000 0.750000 0.000000 0.000000 2.781250
0.100000 0.500000 0.500000 1.000000 0.750000 0.000000 0.000000 2.781250
0.100000 0.500000 0.600000 1.000000 0.750000 0.000000 0.000000 2.781250
0.100000 0.500000 0.700000 1.000000 0.750000 0.000000 0.000000 2.781250
0.100000 0.500000 0.800000 1.000000 0.750000 0.000000 0.000000 2.781250
0.100000 0.500000 0.900000 1.000000 0.750000 0.000000 0.000000 2.781250
0.100000 0.600000 -0.000000 1.000000 0.750000 0.000000 0.000000 2.781250
0.100000 0.600000 0.100000 1.000000 0.750000 0.000000 0.000000 2.781250
0.100000 0.600000 0.200000 1.000000 0.750000 0.000000 0.000000 2.781250
0.100000 0.600000 0.300000 1.000000 0.750000 0.000000 0.000000 2.781250
0.100000 0.600000 0.400000 1.000000 0.750000 0.000000 0.000000 2.781250
0.100000 0.600000 0.500000 1.000000 0.750000 0.000000 0.000000 2.781250
0.100000 0.600000 0.600000 1.000000 0.750000 0.000000 0.000000 2.781250
0.100000 0.600000 0.700000 1.000000 0.750000 0.000000 0.000000 2.781250
0.100000 0.600000 0.800000 1.000000 0.750000 0.000000 0.000000 2.781250
0.100000 0.600000 0.900000 1.000000 0.750000 0.000000 0.000000 2.781250
0.100000 0.700000 -0.000000 1.000000 0.750000 0.000000 0.000000 2.781250
0.100000 0.700000 0.100000 1.000000 0.750000 0.000000 0.000000 2.781250
0.100000 0.700000 0.200000 1.000000 0.750000 0.000000 0.000000 2.781250
0.100000 0.700000 0.300000 1.000000 0.750000 0.000000 0.000000 2.781250
0.100000 0.700000 0.400000 1.000000 0.750000 0.000000 0.000000 2.781250
0.100000 0.700000 0.500000 1.000000 0.750000 0.000000 0.000000 2.781250
0.100000 0.700000 0.600000 1.000000 0.750000 0.000000 0.000000 2.781250
0.100000 0.700000 0.700000 1.000000 0.750000 0.000000 0.000000 2.781250
0.100000 0.700000 0.800000 1.000000 0.750000 0.000000 0.000000 2.781250
0.100000 0.700000 0.900000 1.000000 0.750000 0.000000 0.000000 2.781250
0.100000 0.800000 -0.000000 1.000000 0.750000 0.000000 0.000000 2.781250
0.100000 0.800000 0.100000 1.000000 0.750000 0.000000 0.000000 2.781250
0.100000 0.800000 0.200000 1.000000 0.750000 0.000000 0.000000 2.781250
0.100000 0.800000 0.300000 1.000000 0.750000 0.000000 0.000000 2.781250
0.100000 0.800000 0.400000 1.000000 0.750000 0.000000 0.000000 2.781250
0.100000 0.800000 0.500000 1.000000 0.750000 0.000000 0.000000 2.781250
0.100000 0.800000 0.600000 1.000000 0.750000 0.000000 0.000000 2.781250
0.100000 0.800000 0.700000 1.000000 0.750000 0.000000 0.000000 2.781250
0.100000 0.800000 0.800000 1.000000 0.750000 0.000000 0.000000 2.781250
0.100000 0.800000 0.900000 1.000000 0.750000 0.000000 0.000000 2.781250
0.100000 0.900000 -0.000000 1.000000 0.750000 0.000000 0.000000 2.781250
0.100000 0.900000 0.100000 1.000000 0.750000 0.000000 0.000000 2.781250
0.100000 0.900000 0.200000 1.000000 0.750000 0.000000 0.000000 2.781250
0.100000 0.900000 0.300000 1.000000 0.750000 0.000000 0.000000 2.781250
0.100000 0.900000 0.400000 1.000000 0.750000 0.000000 0.000000 2.781250
0.100000 0.900000 0.500000 1.000000 0.750000 0.000000 0.000000 2.781250
0.100000 0.900000 0.600000 1.000000 0.750000 0.000000 0.000000 2.781250
0.100000 0.900000 0.700000 1.000000 0.750000 0.000000 0.000000 2.781250
0.100000 0.900000 0.800000 1.000000 0.750000 0.000000 0.000000 2.781250
0.100000 0.900000 0.900000 1.000000 0.750000 0.000000 0.000000 2.781250
0.200000 -0.000000 -0.000000 1.000000 0.750000 0.000000 0.000000 2.781250
0.200000 -0.000000 0.100000 1.000000 0.750000 0.000000 0.000000 2.781250
0.200000 -0.000000 0.200000 1.000000 0.750000 0.000000 0.000000 2.781250
0.200000 -0.000000 0.300000 1.000000 0.750000 0.000000 0.000000 2.781250
0.200000 -0.000000 0.400000 1.000000 0.750000 0.000000 0.000000 2.781250
0.200000 -0.000000 0.500000 1.000000 0.750000 0.000000 0.000000 2.781250
0.200000 -0.000000 0.600000 1.000000 0.750000 0.000000 0.000000 2.781250
0.200000 -0.000000 0.700000 1.000000 0.750000 0.000000 0.000000 2.781250
0.200000 -0.000000 0.800000 1.000000 0.750000 0.000000 0.000000 2.781250
0.200000 -0.000000 0.900000 1.000000 0.750000 0.000000 0.000000 2.781250
0.200000 0.100000 -0.000000 1.000000 0.750000 0.000000 0.000000 2.781250
0.200000 0.100000 0.100000 1.000000 0.750000 0.000000 0.000000 2.781250
0.200000 0.100000 0.200000 1.000000 0.750000 0.000000 0.000000 2.781250
0.200000 0.100000 0.300000 1.000000 0.750000 0.000000 0.000000 2.781250
0.200000 0.100000 0.400000 1.000000 0.750000 0.000000 0.000000 2.781250
0.200000 0.100000 0.500000 1.000000 0.750000 0.000000 0.000000 2.781250
0.200000 0.100000 0.600000 1.000000 0.750000 0.000000 0.000000 2.781250
0.200000 0.100000 0.700000 1.000000 0.750000 0.000000 0.000000 2.781250
0.200000 0.100000 0.800000 1.000000 0.750000 0.000000 0.000000 2.781250
0.200000 0.100000 0.900000 1.000000 0.750000 0.000000 0.000000 2.781250
0.200000 0.200000 -0.000000 1.000000 0.750000 0.000000 0.000000 2.781250
0.200000 0.200000 0.100000 1.000000 0.750000 0.000000 0.000000 2.781250
0.200000 0.200000 0.200000 1.000000 0.750000 0.000000 0.000000 2.781250
0.200000 0.200000 0.300000 1.000000 0.750000 0.000000 0.000000 2.781250
0.200000 0.200000 0.400000 1.000000 0.750000 0.000000 0.000000 2.781250
0.200000 0.200000 0.500000 1.000000 0.750000 0.000000 0.000000 2.781250
0.200000 0.200000 0.600000 1.000000 0.750000 0.000000 0.000000 2.781250
0.200000 0.200000 0.700000 1.000000 0.750000 0.000000 0.000000 2.781250
0.200000 0.200000 0.800000 1.000000 0.750000 0.000000 0.000000 2.781250
0.200000 0.200000 0.900000 1.000000 0.750000 0.000000 0.000000 2.781250
0.200000 0.300000 -0.000000 1.000000 0.750000 0.000000 0.000000 2.781250
0.200000 0.300000 0.100000 1.000000 0.750000 0.000000 0.000000 2.781250
0.200000 0.300000 0.200000 1.000000 0.750000 0.000000 0.000000 2.781250
0.200000 0.300000 0.300000 1.000000 0.750000 0.000000 0.000000 2.781250
0.200000 0.300000 0.400000 1.000000 0.750000 0.000000 0.000000 2.781250
0.200000 0.300000 0.500000 1.000000 0.750000 0.000000 0.000000 2.781250
0.200000 0.300000 0.600000 1.000000 0.750000 0.000000 0.000000 2.781250
0.200000 0.300000 0.700000 1.000000 0.750000 0.000000 0.000000 2.781250
0.200000 0.300000 0.800000 1.000000 0.750000 0.000000 0.000000 2.781250
0.200000 0.300000 0.900000 1.000000 0.750000 0.000000 0.000000 2.781250
0.200000 0.400000 -0.000000 1.000000 0.750000 0.000000 0.000000 2.781250
0.200000 0.400000 0.100000 1.000000 0.750000 0.000000 0.000000 2.781250
0.200000 0.400000 0.200000 1.000000 0.750000 0.000000 0.000000 2.781250
0.200000 0.400000 0.300000 1.000000 0.750000 0.000000 0.000000 2.781250
0.200000 0.400000 0.400000 1.000000 0.750000 0.000000 0.000000 2.781250
0.200000 0.400000 0.500000 1.000000 0.750000 0.000000 0.000000 2.781250
0.200000 0.400000 0.600000 1.000000 0.750000 0.000000 0.000000 2.781250
0.200000 0.400000 0.700000 1.000000 0.750000 0.000000 0.000000 2.781250
0.200000 0.400000 0.800000 1.000000 0.750000 0.000000 0.000000 2.781250
0.200000 0.400000 0.900000 1.000000 0.750000 0.000000 0.000000 2.781250
0.200000 0.500000 -0.000000 1.000000 0.750000 0.000000 0.000000 2.781250
0.200000 0.500000 0.100000 1.000000 0.750000 0.000000 0.000000 2.781250
0.200000 0.500000 0.200000 1.000000 0.750000 0.000000 0.000000 2.781250
0.200000 0.500000 0.300000 1.000000 0.750000 0.000000 0.000000 2.781250
0.200000 0.500000 0.400000 1.000000 0.750000 0.000000 0.000000 2.781250
0.200000 0.500000 0.500000 1.000000 0.750000 0.000000 0.000000 2.781250
0.200000 0.500000 0.600000 1.000000 0.750000 0.000000 0.000000 2.781250
0.200000 0.500000 0.700000 1.000000 0.750000 0.000000 0.000000 2.781250
0.200000 0.500000 0.800000 1.000000 0.750000 0.000000 0.000000 2.781250
0.200000 0.500000 0.900000 1.000000 0.750000 0.000000 0.000000 2.781250
0.200000 0.600000 -0.000000 1.000000 0.750000 0.000000 0.000000 2.781250
0.200000 0.600000 0.100000 1.000000 0.750000 0.000000 0.000000 2.781250
0.200000 0.600000 0.200000 1.000000 0.750000 0.000000 0.000000 2.781250
0.200000 0.600000 0.300000 1.000000 0.750000 0.000000 0.000000 2.781250
0.200000 0.600000 0.400000 1.000000 0.750000 0.000000 0.000000 2.781250
0.200000 0.600000 0.500000 1.000000 0.750000 0.000000 0.000000 2.781250
0.200000 0.600000 0.600000 1.000000 0.750000 0.000000 0.000000 2.781250
0.200000 0.600000 0.700000 1.000000 0.750000 0.000000 0.000000 2.781250
0.200000 0.600000 0.800000 1.000000 0.750000 0.000000 0.000000 2.781250
0.200000 0.600000 0.900000 1.000000 0.750000 0.000000 0.000000 2.781250
0.200000 0.700000 -0.000000 1.000000 0.750000 0.000000 0.000000 2.781250
0.200000 0.700000 0.100000 1.000000 0.750000 0.000000 0.000000 2.781250
0.200000 0.700000 0.200000 1.000000 0.750000 0.000000 0.000000 2.781250
0.200000 0.700000 0.300000 1.000000 0.750000 0.000000 0.000000 2.781250
0.200000 0.700000 0.400000 1.000000 0.750000 0.000000 0.000000 2.781250
0.200000 0.700000 0.500000 1.000000 0.750000 0.000000 0.000000 2.781250
0.200000 0.700000 0.600000 1.000000 0.750000 0.000000 0.000000 2.781250
0.200000 0.700000 0.700000 1.000000 0.750000 0.000000 0.000000 2.781250
0.200000 0.700000 0.800000 1.000000 0.750000 0.000000 0.000000 2.781250
0.200000 0.700000 0.900000 1.000000 0.750000 0.000000 0.000000 2.781250
0.200000 0.800000 -0.000000 1.000000 0.750000 0.000000 0.000000 2.781250
0.200000 0.800000 0.100000 1.000000 0.750000 0.000000 0.000000 2.781250
0.200000 0.800000 0.200000 1.000000 0.750000 0.000000 0.000000 2.781250
0.200000 0.800000 0.300000 1.000000 0.750000 0.000000 0.000000 2.781250
0.200000 0.800000 0.400000 1.000000 0.750000 0.000000 0.000000 2.781250
0.200000 0.800000 0.500000 1.000000 0.750000 0.000000 0.000000 2.781250
0.200000 0.800000 0.600000 1.000000 0.750000 0.000000 0.000000 2.781250
0.200000 0.800000 0.700000 1.000000 0.750000 0.000000 0.000000 2.781250
0.200000 0.800000 0.800000 1.000000 0.750000 0.000000 0.000000 2.781250
0.200000 0.800000 0.900000 1.000000 0.750000 0.000000 0.000000 2.781250
0.200000 0.900000 -0.000000 1.000000 0.750000 0.000000 0.000000 2.781250
0.200000 0.900000 0.100000 1.000000 0.750000 0.000000 0.000000 2.781250
0.200000 0.900000 0.200000 1.000000 0.750000 0.000000 0.000000 2.781250
0.200000 0.900000 0.300000 1.000000 0.750000 0.000000 0.000000 2.781250
0.200000 0.900000 0.400000 1.000000 0.750000 0.000000 0.000000 2.781250
0.200000 0.900000 0.500000 1.000000 0.750000 0.000000 0.000000 2.781250
0.200000 0.900000 0.600000 1.000000 0.750000 0.000000 0.000000 2.781250
0.200000 0.900000 0.700000 1.000000 0.750000 0.000000 0.000000 2.781250
0.200000 0.900000 0.800000 1.000000 0.750000 0.000000 0.000000 2.781250
0.200000 0.900000 0.900000 1.000000 0.750000 0.000000 0.000000 2.781250
0.300000 -0.000000 -0.000000 1.000000 0.750000 0.000000 0.000000 2.781250
0.300000 -0.000000 0.100000 1.000000 0.750000 0.000000 0.000000 2.781250
0.300000 -0.000000 0.200000 1.000000 0.750000 0.000000 0.000000 2.781250
0.300000 -0.000000 0.300000 1.000000 0.750000 0.000000 0.000000 2.781250
0.300000 -0.000000 0.400000 1.000000 0.750000 0.000000 0.000000 2.781250
0.300000 -0.000000 0.500000 1.000000 0.750000 0.000000 0.000000 2.781250
0.300000 -0.000000 0.600000 1.000000 0.750000 0.000000 0.000000 2.781250
0.300000 -0.000000 0.700000 1.000000 0.750000 0.000000 0.000000 2.781250
0.300000 -0.000000 0.800000 1.000000 0.750000 0.000000 0.000000 2.781250
0.300000 -0.000000 0.900000 1.000000 0.750000 0.000000 0.000000 2.781250
0.300000 0.100000 -0.000000 1.000000 0.750000 0.000000 0.000000 2.781250
0.300000 0.100000 0.100000 1.000000 0.750000 0.000000 0.000000 2.781250
0.300000 0.100000 0.200000 1.000000 0.750000 0.000000 0.000000 2.781250
0.300000 0.100000 0.300000 1.000000 0.750000 0.000000 0.000000 2.781250
0.300000 0.100000 0.400000 1.000000 0.750000 0.000000 0.000000 2.781250
0.300000 0.100000 0.500000 1.000000 0.750000 0.000000 0.000000 2.781250
0.300000 0.100000 0.600000 1.000000 0.750000 0.000000 0.000000 2.781250
0.300000 0.100000 0.700000 1.000000 0.750000 0.000000 0.000000 2.781250
0.300000 0.100000 0.800000 1.000000 0.750000 0.000000 0.000000 2.781250
0.300000 0.100000 0.900000 1.000000 0.750000 0.000000 0.000000 2.781250
0.300000 0.200000 -0.000000 1.000000 0.750000 0.000000 0.000000 2.781250
0.300000 0.200000 0.100000 1.000000 0.750000 0.000000 0.000000 2.781250
0.300000 0.200000 0.200000 1.000000 0.750000 0.000000 0.000000 2.781250
0.300000 0.200000 0.300000 1.000000 0.750000 0.000000 0.000000 2.781250
0.300000 0.200000 0.400000 1.000000 0.750000 0.000000 0.000000 2.781250
0.300000 0.200000 0.500000 1.000000 0.750000 0.000000 0.000000 2.781250
0.300000 0.200000 0.600000 1.000000 0.750000 0.000000 0.000000 2.781250
0.300000 0.200000 0.700000 1.000000 0.750000 0.000000 0.000000 2.781250
0.300000 0.200000 0.800000 1.000000 0.750000 0.000000 0.000000 2.781250
0.300000 0.200000 0.900000 1.000000 0.750000 0.000000 0.000000 2.781250
0.300000 0.300000 -0.000000 1.000000 0.750000 0.000000 0.000000 2.781250
0.300000 0.300000 0.100000 1.000000 0.750000 0.000000 0.000000 2.781250
0.300000 0.300000 0.200000 1.000000 0.750000 0.000000 0.000000 2.781250
0.300000 0.300000 0.300000 1.000000 0.750000 0.000000 0.000000 2.781250
0.300000 0.300000 0.400000 1.000000 0.750000 0.000000 0.000000 2.781250
0.300000 0.300000 0.500000 1.000000 0.750000 0.000000 0.000000 2.781250
0.300000 0.300000 0.600000 1.000000 0.750000 0.000000 0.000000 2.781250
0.300000 0.300000 0.700000 1.000000 0.750000 0.000000 0.000000 2.781250
0.300000 0.300000 0.800000 1.000000 0.750000 0.000000 0.000000 2.781250
0.300000 0.300000 0.900000 1.000000 0.750000 0.000000 0.000000 2.781250
0.300000 0.400000 -0.000000 1.000000 0.750000 0.000000 0.000000 2.781250
0.300000 0.400000 0.100000 1.000000 0.750000 0.000000 0.000000 2.781250
0.300000 0.400000 0.200000 1.000000 0.750000 0.000000 0.000000 2.781250
0.300000 0.400000 0.300000 1.000000 0.750000 0.000000 0.000000 2.781250
0.300000 0.400000 0.400000 1.000000 0.750000 0.000000 0.000000 2.781250
0.300000 0.400000 0.500000 1.000000 0.750000 0.000000 0.000000 2.781250
0.300000 0.400000 0.600000 1.000000 0.750000 0.000000 0.000000 2.781250
0.300000 0.400000 0.700000 1.000000 0.750000 0.000000 0.000000 2.781250
0.300000 0.400000 0.800000 1.000000 0.750000 0.000000 0.000000 2.781250
0.300000 0.400000 0.900000 1.000000 0.750000 0.000000 0.000000 2.781250
0.300000 0.500000 -0.000000 1.000000 0.750000 0.000000 0.000000 2.781250
0.300000 0.500000 0.100000 1.000000 0.750000 0.000000 0.000000 2.781250
0.300000 0.500000 0.200000 1.000000 0.750000 0.000000 0.000000 2.781250
0.300000 0.500000 0.300000 1.000000 0.750000 0.000000 0.000000 2.781250
0.300000 0.500000 0.400000 1.000000 0.750000 0.000000 0.000000 2.781250
0.300000 0.500000 0.500000 1.000000 0.750000 0.000000 0.000000 2.781250
0.300000 0.500000 0.600000 1.000000 0.750000 0.000000 0.000000 2.781250
0.300000 0.500000 0.700000 1.000000 0.750000 0.000000 0.000000 2.781250
0.300000 0.500000 0.800000 1.000000 0.750000 0.000000 0.000000 2.781250
0.300000 0.500000 0.900000 1.000000 0.750000 0.000000 0.000000 2.781250
0.300000 0.600000 -0.000000 1.000000 0.750000 0.000000 0.000000 2.781250
0.300000 0.600000 0.100000 1.000000 0.750000 0.000000 0.000000 2.781250
0.300000 0.600000 0.200000 1.000000 0.750000 0.000000 0.000000 2.781250
0.300000 0.600000 0.300000 1.000000 0.750000 0.000000 0.000000 2.781250
0.300000 0.600000 0.400000 1.000000 0.750000 0.000000 0.000000 2.781250
0.300000 0.600000 0.500000 1.000000 0.750000 0.000000 0.000000 2.781250
0.300000 0.600000 0.600000 1.000000 0.750000 0.000000 0.000000 2.781250
0.300000 0.600000 0.700000 1.000000 0.750000 0.000000 0.000000 2.781250
0.300000 0.600000 0.800000 1.000000 0.750000 0.000000 0.000000 2.781250
0.300000 0.600000 0.900000 1.000000 0.750000 0.000000 0.000000 2.781250
0.300000 0.700000 -0.000000 1.000000 0.750000 0.000000 0.000000 2.781250
0.300000 0.700000 0.100000 1.000000 0.750000 0.000000 0.000000 2.781250
0.300000 0.700000 0.200000 1.000000 0.750000 0.000000 0.000000 2.781250
0.300000 0.700000 0.300000 1.000000 0.750000 0.000000 0.000000 2.781250
0.300000 0.700000 0.400000 1.000000 0.750000 0.000000 0.000000 2.781250
0.300000 0.700000 0.500000 1.000000 0.750000 0.000000 0.000000 2.781250
0.300000 0.700000 0.600000 1.000000 0.750000 0.000000 0.000000 2.781250
0.300000 0.700000 0.700000 1.000000 0.750000 0.000000 0.000000 2.781250
0.300000 0.700000 0.800000 1.000000 0.750000 0.000000 0.000000 2.781250
0.300000 0.700000 0.900000 1.000000 0.750000 0.000000 0.000000 2.781250
0.300000 0.800000 -0.000000 1.000000 0.750000 0.000000 0.000000 2.781250
0.300000 0.800000 0.100000 1.000000 0.750000 0.000000 0.000000 2.781250
0.300000 0.800000 0.200000 1.000000 0.750000 0.000000 0.000000 2.781250
0.300000 0.800000 0.300000 1.000000 0.750000 0.000000 0.000000 2.781250
0.300000 0.800000 0.400000 1.000000 0.750000 0.000000 0.000000 2.781250
0.300000 0.800000 0.500000 1.000000 0.750000 0.000000 0.000000 2.781250
0.300000 0.800000 0.600000 1.000000 0.750000 0.000000 0.000000 2.781250
0.300000 0.800000 0.700000 1.000000 0.750000 0.000000 0.000000 2.781250
0.300000 0.800000 0.800000 1.000000 0.750000 0.000000 0.000000 2.781250
0.300000 0.800000 0.900000 1.000000 0.750000 0.000000 0.000000 2.781250
0.300000 0.900000 -0.000000 1.000000 0.750000 0.000000 0.000000 2.781250
0.300000 0.900000 0.100000 1.000000 0.750000 0.000000 0.000000 2.781250
0.300000 0.900000 0.200000 1.000000 0.750000 0.000000 0.000000 2.781250
0.300000 0.900000 0.300000 1.000000 0.750000 0.000000 0.000000 2.781250
0.300000 0.900000 0.400000 1.000000 0.750000 0.000000 0.000000 2.781250
0.300000 0.900000 0.500000 1.000000 0.750000 0.000000 0.000000 2.781250
0.300000 0.900000 0.600000 1.000000 0.750000 0.000000 0.000000 2.781250
0.300000 0.900000 0.700000 1.000000 0.750000 0.000000 0.000000 2.781250
0.300000 0.900000 0.800000 1.000000 0.750000 0.000000 0.000000 2.781250
0.300000 0.900000 0.900000 1.000000 0.750000 0.000000 0.000000 2.781250
0.400000 -0.000000 -0.000000 0.125000 0.000000 0.000000 0.000000 0.250000
0.400000 -0.000000 0.100000 0.125000 0.000000 0.000000 0.000000 0.250000
0.400000 -0.000000 0.200000 0.125000 0.000000 0.000000 0.000000 0.250000
0.400000 -0.000000 0.300000 0.125000 0.000000 0.000000 0.000000 0.250000
0.400000 -0.000000 0.400000 0.125000 0.000000 0.000000 0.000000 0.250000
0.400000 -0.000000 0.500000 0.125000 0.000000 0.000000 0.000000 0.250000
0.400000 -0.000000 0.600000 0.125000 0.000000 0.000000 0.000000 0.250000
0.400000 -0.000000 0.700000 0.125000 0.000000 0.000000 0.000000 0.250000
0.400000 -0.000000 0.800000 0.125000 0.000000 0.000000 0.000000 0.250000
0.400000 -0.000000 0.900000 0.125000 0.000000 0.000000 0.000000 0.250000
0.400000 0.100000 -0.000000 0.125000 0.000000 0.000000 0.000000 0.250000