VARIABLES="X","Y","Z","ro","ro*u","ro*v","ro*w","ro*E"
TITLE="Conservative variables vector field t = 0.10125562439455821"
ZONE T="Numerical", I=10, J=10, K=10, F=POINT
-0.000000 -0.000000 -0.000000 0.999825 0.749967 0.000000 0.000000 2.780935
-0.000000 -0.000000 0.100000 0.999825 0.749967 0.000000 0.000000 2.780935
-0.000000 -0.000000 0.200000 0.999825 0.749967 0.000000 0.000000 2.780935
-0.000000 -0.000000 0.300000 0.999825 0.749967 0.000000 0.000000 2.780935
-0.000000 -0.000000 0.400000 0.999825 0.749967 0.000000 0.000000 2.780935
-0.000000 -0.000000 0.500000 0.999825 0.749967 0.000000 0.000000 2.780935
-0.000000 -0.000000 0.600000 0.999825 0.749967 0.000000 0.000000 2.780935
-0.000000 -0.000000 0.700000 0.999825 0.749967 0.000000 0.000000 2.780935
-0.000000 -0.000000 0.800000 0.999825 0.749967 0.000000 0.000000 2.780935
-0.000000 -0.000000 0.900000 0.999825 0.749967 0.000000 0.000000 2.780935
-0.000000 0.100000 -0.000000 0.999825 0.749967 0.000000 0.000000 2.780935
-0.000000 0.100000 0.100000 0.999825 0.749967 0.000000 0.000000 2.780935
-0.000000 0.100000 0.200000 0.999825 0.749967 0.000000 0.000000 2.780935
-0.000000 0.100000 0.300000 0.999825 0.749967 0.000000 0.000000 2.780935
-0.000000 0.100000 0.400000 0.999825 0.749967 0.000000 0.000000 2.780935
-0.000000 0.100000 0.500000 0.999825 0.749967 0.000000 0.000000 2.780935
-0.000000 0.100000 0.600000 0.999825 0.749967 0.000000 0.000000 2.780935
-0.000000 0.100000 0.700000 0.999825 0.749967 0.000000 0.000000 2.780935
-0.000000 0.100000 0.800000 0.999825 0.749967 0.000000 0.000000 2.780935
-0.000000 0.100000 0.900000 0.999825 0.749967 0.000000 0.000000 2.780935
-0.000000 0.200000 -0.000000 0.999825 0.749967 0.000000 0.000000 2.780935
-0.000000 0.200000 0.100000 0.999825 0.749967 0.000000 0.000000 2.780935
-0.000000 0.200000 0.200000 0.999825 0.749967 0.000000 0.000000 2.780935
-0.000000 0.200000 0.300000 0.999825 0.749967 0.000000 0.000000 2.780935
-0.000000 0.200000 0.400000 0.999825 0.749967 0.000000 0.000000 2.780935
-0.000000 0.200000 0.500000 0.999825 0.749967 0.000000 0.000000 2.780935
-0.000000 0.200000 0.600000 0.999825 0.749967 0.000000 0.000000 2.780935
-0.000000 0.200000 0.700000 0.999825 0.749967 0.000000 0.000000 2.780935
-0.000000 0.200000 0.800000 0.999825 0.749967 0.000000 0.000000 2.780935
-0.000000 0.200000 0.900000 0.999825 0.749967 0.000000 0.000000 2.780935
-0.000000 0.300000 -0.000000 0.999825 0.749967 0.000000 0.000000 2.780935
-0.000000 0.300000 0.100000 0.999825 0.749967 0.000000 0.000000 2.780935
-0.000000 0.300000 0.200000 0.999825 0.749967 0.000000 0.000000 2.780935
-0.000000 0.300000 0.300000 0.999825 0.749967 0.000000 0.000000 2.780935
-0.000000 0.300000 0.400000 0.999825 0.749967 0.000000 0.000000 2.780935
-0.000000 0.300000 0.500000 0.999825 0.749967 0.000000 0.000000 2.780935
-0.000000 0.300000 0.600000 0.999825 0.749967 0.000000 0.000000 2.780935
-0.000000 0.300000 0.700000 0.999825 0.749967 0.000000 0.000000 2.780935
-0.000000 0.300000 0.800000 0.999825 0.749967 0.000000 0.000000 2.780935
-0.000000 0.300000 0.900000 0.999825 0.749967 0.000000 0.000000 2.780935
-0.000000 0.400000 -0.000000 0.999825 0.749967 0.000000 0.000000 2.780935
-0.000000 0.400000 0.100000 0.999825 0.749967 0.000000 0.000000 2.780935
-0.000000 0.400000 0.200000 0.999825 0.749967 0.000000 0.000000 2.780935
-0.000000 0.400000 0.300000 0.999825 0.749967 0.000000 0.000000 2.780935
-0.000000 0.400000 0.400000 0.999825 0.749967 0.000000 0.000000 2.780935
-0.000000 0.400000 0.500000 0.999825 0.749967 0.000000 0.000000 2.780935
-0.000000 0.400000 0.600000 0.999825 0.749967 0.000000 0.000000 2.780935
-0.000000 0.400000 0.700000 0.999825 0.749967 0.000000 0.000000 2.780935
-0.000000 0.400000 0.800000 0.999825 0.749967 0.000000 0.000000 2.780935
-0.000000 0.400000 0.900000 0.999825 0.749967 0.000000 0.000000 2.780935
-0.000000 0.500000 -0.000000 0.999825 0.749967 0.000000 0.000000 2.780935
-0.000000 0.500000 0.100000 0.999825 0.749967 0.000000 0.000000 2.780935
-0.000000 0.500000 0.200000 0.999825 0.749967 0.000000 0.000000 2.780935
-0.000000 0.500000 0.300000 0.999825 0.749967 0.000000 0.000000 2.780935
-0.000000 0.500000 0.400000 0.999825 0.749967 0.000000 0.000000 2.780935
-0.000000 0.500000 0.500000 0.999825 0.749967 0.000000 0.000000 2.780935
-0.000000 0.500000 0.600000 0.999825 0.749967 0.000000 0.000000 2.780935
-0.000000 0.500000 0.700000 0.999825 0.749967 0.000000 0.000000 2.780935
-0.000000 0.500000 0.800000 0.999825 0.749967 0.000000 0.000000 2.780935
-0.000000 0.500000 0.900000 0.999825 0.749967 0.000000 0.000000 2.780935
-0.000000 0.600000 -0.000000 0.999825 0.749967 0.000000 0.000000 2.780935
-0.000000 0.600000 0.100000 0.999825 0.749967 0.000000 0.000000 2.780935
-0.000000 0.600000 0.200000 0.999825 0.749967 0.000000 0.000000 2.780935
-0.000000 0.600000 0.300000 0.999825 0.749967 0.000000 0.000000 2.780935
-0.000000 0.600000 0.400000 0.999825 0.749967 0.000000 0.000000 2.780935
-0.000000 0.600000 0.500000 0.999825 0.749967 0.000000 0.000000 2.780935
-0.000000 0.600000 0.600000 0.999825 0.749967 0.000000 0.000000 2.780935
-0.000000 0.600000 0.700000 0.999825 0.749967 0.000000 0.000000 2.780935
-0.000000 0.600000 0.800000 0.999825 0.749967 0.000000 0.000000 2.780935
-0.000000 0.600000 0.900000 0.999825 0.749967 0.000000 0.000000 2.780935
-0.000000 0.700000 -0.000000 0.999825 0.749967 0.000000 0.000000 2.780935
-0.000000 0.700000 0.100000 0.999825 0.749967 0.000000 0.000000 2.780935
-0.000000 0.700000 0.200000 0.999825 0.749967 0.000000 0.000000 2.780935
-0.000000 0.700000 0.300000 0.999825 0.749967 0.000000 0.000000 2.780935
-0.000000 0.700000 0.400000 0.999825 0.749967 0.000000 0.000000 2.780935
-0.000000 0.700000 0.500000 0.999825 0.749967 0.000000 0.000000 2.780935
-0.000000 0.700000 0.600000 0.999825 0.749967 0.000000 0.000000 2.780935
-0.000000 0.700000 0.700000 0.999825 0.749967 0.000000 0.000000 2.780935
-0.000000 0.700000 0.800000 0.999825 0.749967 0.000000 0.000000 2.780935
-0.000000 0.700000 0.900000 0.999825 0.749967 0.000000 0.000000 2.780935
-0.000000 0.800000 -0.000000 0.999825 0.749967 0.000000 0.000000 2.780935
-0.000000 0.800000 0.100000 0.999825 0.749967 0.000000 0.000000 2.780935
-0.000000 0.800000 0.200000 0.999825 0.749967 0.000000 0.000000 2.780935
-0.000000 0.800000 0.300000 0.999825 0.749967 0.000000 0.000000 2.780935
-0.000000 0.800000 0.400000 0.999825 0.749967 0.000000 0.000000 2.780935
-0.000000 0.800000 0.500000 0.999825 0.749967 0.000000 0.000000 2.780935
-0.000000 0.800000 0.600000 0.999825 0.749967 0.000000 0.000000 2.780935
-0.000000 0.800000 0.700000 0.999825 0.749967 0.000000 0.000000 2.780935
-0.000000 0.800000 0.800000 0.999825 0.749967 0.000000 0.000000 2.780935
-0.000000 0.800000 0.900000 0.999825 0.749967 0.000000 0.000000 2.780935
-0.000000 0.900000 -0.000000 0.999825 0.749967 0.000000 0.000000 2.780935
-0.000000 0.900000 0.100000 0.999825 0.749967 0.000000 0.000000 2.780935
-0.000000 0.900000 0.200000 0.999825 0.749967 0.000000 0.000000 2.780935
-0.000000 0.900000 0.300000 0.999825 0.749967 0.000000 0.000000 2.780935
-0.000000 0.900000 0.400000 0.999825 0.749967 0.000000 0.000000 2.780935
-0.000000 0.900000 0.500000 0.999825 0.749967 0.000000 0.000000 2.780935
-0.000000 0.900000 0.600000 0.999825 0.749967 0.000000 0.000000 2.780935
-0.000000 0.900000 0.700000 0.999825 0.749967 0.000000 0.000000 2.780935
-0.000000 0.900000 0.800000 0.999825 0.749967 0.000000 0.000000 2.780935
-0.000000 0.900000 0.900000 0.999825 0.749967 0.000000 0.000000 2.780935
0.100000 -0.000000 -0.000000 1.005400 0.750864 0.000000 0.000000 2.791271
0.100000 -0.000000 0.100000 1.005400 0.750864 0.000000 0.000000 2.791271
0.100000 -0.000000 0.200000 1.005400 0.750864 0.000000 0.000000 2.791271
0.100000 -0.000000 0.300000 1.005400 0.750864 0.000000 0.000000 2.791271
0.100000 -0.000000 0.400000 1.005400 0.750864 0.000000 0.000000 2.791271
0.100000 -0.000000 0.500000 1.005400 0.750864 0.000000 0.000000 2.791271
0.100000 -0.000000 0.600000 1.005400 0.750864 0.000000 0.000000 2.791271
0.100000 -0.000000 0.700000 1.005400 0.750864 0.000000 0.000000 2.791271
0.100000 -0.000000 0.800000 1.005400 0.750864 0.000000 0.000000 2.791271
0.100000 -0.000000 0.900000 1.005400 0.750864 0.000000 0.000000 2.791271
0.100000 0.100000 -0.000000 1.005400 0.750864 0.000000 0.000000 2.791271
0.100000 0.100000 0.100000 1.005400 0.750864 0.000000 0.000000 2.791271
0.100000 0.100000 0.200000 1.005400 0.750864 0.000000 0.000000 2.791271
0.100000 0.100000 0.300000 1.005400 0.750864 0.000000 0.000000 2.791271
0.100000 0.100000 0.400000 1.005400 0.750864 0.000000 0.000000 2.791271
0.100000 0.100000 0.500000 1.005400 0.750864 0.000000 0.000000 2.791271
0.100000 0.100000 0.600000 1.005400 0.750864 0.000000 0.000000 2.791271
0.100000 0.100000 0.700000 1.005400 0.750864 0.000000 0.000000 2.791271
0.100000 0.100000 0.800000 1.005400 0.750864 0.000000 0.000000 2.791271
0.100000 0.100000 0.900000 1.005400 0.750864 0.000000 0.000000 2.791271
0.100000 0.200000 -0.000000 1.005400 0.750864 0.000000 0.000000 2.791271
0.100000 0.200000 0.100000 1.005400 0.750864 0.000000 0.000000 2.791271
0.100000 0.200000 0.200000 1.005400 0.750864 0.000000 0.000000 2.791271
0.100000 0.200000 0.300000 1.005400 0.750864 0.000000 0.000000 2.791271
0.100000 0.200000 0.400000 1.005400 0.750864 0.000000 0.000000 2.791271
0.100000 0.200000 0.500000 1.005400 0.750864 0.000000 0.000000 2.791271
0.100000 0.200000 0.600000 1.005400 0.750864 0.000000 0.000000 2.791271
0.100000 0.200000 0.700000 1.005400 0.750864 0.000000 0.000000 2.791271
0.100000 0.200000 0.800000 1.005400 0.750864 0.000000 0.000000 2.791271
0.100000 0.200000 0.900000 1.005400 0.750864 0.000000 0.000000 2.791271
0.100000 0.300000 -0.000000 1.005400 0.750864 0.000000 0.000000 2.791271
0.100000 0.300000 0.100000 1.005400 0.750864 0.000000 0.000000 2.791271
0.100000 0.300000 0.200000 1.005400 0.750864 0.000000 0.000000 2.791271
0.100000 0.300000 0.300000 1.005400 0.750864 0.000000 0.000000 2.791271
0.100000 0.300000 0.400000 1.005400 0.750864 0.000000 0.000000 2.791271
0.100000 0.300000 0.500000 1.005400 0.750864 0.000000 0.000000 2.791271
0.100000 0.300000 0.600000 1.005400 0.750864 0.000000 0.000000 2.791271
0.100000 0.300000 0.700000 1.005400 0.750864 0.000000 0.000000 2.791271
0.100000 0.300000 0.800000 1.005400 0.750864 0.000000 0.000000 2.791271
0.100000 0.300000 0.900000 1.005400 0.750864 0.000000 0.000000 2.791271
0.100000 0.400000 -0.000000 1.005400 0.750864 0.000000 0.000000 2.791271
0.100000 0.400000 0.100000 1.005400 0.750864 0.000000 0.000000 2.791271
0.100000 0.400000 0.200000 1.005400 0.750864 0.000000 0.000000 2.791271
0.100000 0.400000 0.300000 1.005400 0.750864 0.000000 0.000000 2.791271
0.100000 0.400000 0.400000 1.005400 0.750864 0.000000 0.000000 2.791271
0.100000 0.400000 0.500000 1.005400 0.750864 0.000000 0.000000 2.791271
0.100000 0.400000 0.600000 1.005400 0.750864 0.000000 0.000000 2.791271
0.100000 0.400000 0.700000 1.005400 0.750864 0.000000 0.000000 2.791271
0.100000 0.400000 0.800000 1.005400 0.750864 0.000000 0.000000 2.791271
0.100000 0.400000 0.900000 1.005400 0.750864 0.000000 0.000000 2.791271
0.100000 0.500000 -0.000000 1.005400 0.750864 0.000000 0.000000 2.791271
0.100000 0.500000 0.100000 1.005400 0.750864 0.000000 0.000000 2.791271
0.100000 0.500000 0.200000 1.005400 0.750864 0.000000 0.000000 2.791271
0.100000 0.500000 0.300000 1.005400 0.750864 0.000000 0.000000 2.791271
0.100000 0.500000 0.400000 1.005400 0.750864 0.000000 0.000000 2.791271
0.100000 0.500000 0.500000 1.005400 0.750864 0.000000 0.000000 2.791271
0.100000 0.500000 0.600000 1.005400 0.750864 0.000000 0.000000 2.791271
0.100000 0.500000 0.700000 1.005400 0.750864 0.000000 0.000000 2.791271
0.100000 0.500000 0.800000 1.005400 0.750864 0.000000 0.000000 2.791271
0.100000 0.500000 0.900000 1.005400 0.750864 0.000000 0.000000 2.791271
0.100000 0.600000 -0.000000 1.005400 0.750864 0.000000 0.000000 2.791271
0.100000 0.600000 0.100000 1.005400 0.750864 0.000000 0.000000 2.791271
0.100000 0.600000 0.200000 1.005400 0.750864 0.000000 0.000000 2.791271
0.100000 0.600000 0.300000 1.005400 0.750864 0.000000 0.000000 2.791271
0.100000 0.600000 0.400000 1.005400 0.750864 0.000000 0.000000 2.791271
0.100000 0.600000 0.500000 1.005400 0.750864 0.000000 0.000000 2.791271
0.100000 0.600000 0.600000 1.005400 0.750864 0.000000 0.000000 2.791271
0.100000 0.600000 0.700000 1.005400 0.750864 0.000000 0.000000 2.791271
0.100000 0.600000 0.800000 1.005400 0.750864 0.000000 0.000000 2.791271
0.100000 0.600000 0.900000 1.005400 0.750864 0.000000 0.000000 2.791271
0.100000 0.700000 -0.000000 1.005400 0.750864 0.000000 0.000000 2.791271
0.100000 0.700000 0.100000 1.005400 0.750864 0.000000 0.000000 2.791271
0.100000 0.700000 0.200000 1.005400 0.750864 0.000000 0.000000 2.791271
0.100000 0.700000 0.300000 1.005400 0.750864 0.000000 0.000000 2.791271
0.100000 0.700000 0.400000 1.005400 0.750864 0.000000 0.000000 2.791271
0.100000 0.700000 0.500000 1.005400 0.750864 0.000000 0.000000 2.791271
0.100000 0.700000 0.600000 1.005400 0.750864 0.000000 0.000000 2.791271
0.100000 0.700000 0.700000 1.005400 0.750864 0.000000 0.000000 2.791271
0.100000 0.700000 0.800000 1.005400 0.750864 0.000000 0.000000 2.791271
0.100000 0.700000 0.900000 1.005400 0.750864 0.000000 0.000000 2.791271
0.100000 0.800000 -0.000000 1.005400 0.750864 0.000000 0.000000 2.791271
0.100000 0.800000 0.100000 1.005400 0.750864 0.000000 0.000000 2.791271
0.100000 0.800000 0.200000 1.005400 0.750864 0.000000 0.000000 2.791271
0.100000 0.800000 0.300000 1.005400 0.750864 0.000000 0.000000 2.791271
0.100000 0.800000 0.400000 1.005400 0.750864 0.000000 0.000000 2.791271
0.100000 0.800000 0.500000 1.005400 0.750864 0.000000 0.000000 2.791271
0.100000 0.800000 0.600000 1.005400 0.750864 0.000000 0.000000 2.791271
0.100000 0.800000 0.700000 1.005400 0.750864 0.000000 0.000000 2.791271
0.100000 0.800000 0.800000 1.005400 0.750864 0.000000 0.000000 2.791271
0.100000 0.800000 0.900000 1.005400 0.750864 0.000000 0.000000 2.791271
0.100000 0.900000 -0.000000 1.005400 0.750864 0.000000 0.000000 2.791271
0.100000 0.900000 0.100000 1.005400 0.750864 0.000000 0.000000 2.791271
0.100000 0.900000 0.200000 1.005400 0.750864 0.000000 0.000000 2.791271
0.100000 0.900000 0.300000 1.005400 0.750864 0.000000 0.000000 2.791271
0.100000 0.900000 0.400000 1.005400 0.750864 0.000000 0.000000 2.791271
0.100000 0.900000 0.500000 1.005400 0.750864 0.000000 0.000000 2.791271
0.100000 0.900000 0.600000 1.005400 0.750864 0.000000 0.000000 2.791271
0.100000 0.900000 0.700000 1.005400 0.750864 0.000000 0.000000 2.791271
0.100000 0.900000 0.800000 1.005400 0.750864 0.000000 0.000000 2.791271
0.100000 0.900000 0.900000 1.005400 0.750864 0.000000 0.000000 2.791271
0.200000 -0.000000 -0.000000 0.934532 0.735901 0.000000 0.000000 2.676160
0.200000 -0.000000 0.100000 0.934532 0.735901 0.000000 0.000000 2.676160
0.200000 -0.000000 0.200000 0.934532 0.735901 0.000000 0.000000 2.676160
0.200000 -0.000000 0.300000 0.934532 0.735901 0.000000 0.000000 2.676160
0.200000 -0.000000 0.400000 0.934532 0.735901 0.000000 0.000000 2.676160
0.200000 -0.000000 0.500000 0.934532 0.735901 0.000000 0.000000 2.676160
0.200000 -0.000000 0.600000 0.934532 0.735901 0.000000 0.000000 2.676160
0.200000 -0.000000 0.700000 0.934532 0.735901 0.000000 0.000000 2.676160
0.200000 -0.000000 0.800000 0.934532 0.735901 0.000000 0.000000 2.676160
0.200000 -0.000000 0.900000 0.934532 0.735901 0.000000 0.000000 2.676160
0.200000 0.100000 -0.000000 0.934532 0.735901 0.000000 0.000000 2.676160
0.200000 0.100000 0.100000 0.934532 0.735901 0.000000 0.000000 2.676160
0.200000 0.100000 0.200000 0.934532 0.735901 0.000000 0.000000 2.676160
0.200000 0.100000 0.300000 0.934532 0.735901 0.000000 0.000000 2.676160
0.200000 0.100000 0.400000 0.934532 0.735901 0.000000 0.000000 2.676160
0.200000 0.100000 0.500000 0.934532 0.735901 0.000000 0.000000 2.676160
0.200000 0.100000 0.600000 0.934532 0.735901 0.000000 0.000000 2.676160
0.200000 0.100000 0.700000 0.934532 0.735901 0.000000 0.000000 2.676160
0.200000 0.100000 0.800000 0.934532 0.735901 0.000000 0.000000 2.676160
0.200000 0.100000 0.900000 0.934532 0.735901 0.000000 0.000000 2.676160
0.200000 0.200000 -0.000000 0.934532 0.735901 0.000000 0.000000 2.676160
0.200000 0.200000 0.100000 0.934532 0.735901 0.000000 0.000000 2.676160
0.200000 0.200000 0.200000 0.934532 0.735901 0.000000 0.000000 2.676160
0.200000 0.200000 0.300000 0.934532 0.735901 0.000000 0.000000 2.676160
0.200000 0.200000 0.400000 0.934532 0.735901 0.000000 0.000000 2.676160
0.200000 0.200000 0.500000 0.934532 0.735901 0.000000 0.000000 2.676160
0.200000 0.200000 0.600000 0.934532 0.735901 0.000000 0.000000 2.676160
0.200000 0.200000 0.700000 0.934532 0.735901 0.000000 0.000000 2.676160
0.200000 0.200000 0.800000 0.934532 0.735901 0.000000 0.000000 2.676160
0.200000 0.200000 0.900000 0.934532 0.735901 0.000000 0.000000 2.676160
0.200000 0.300000 -0.000000 0.934532 0.735901 0.000000 0.000000 2.676160
0.200000 0.300000 0.100000 0.934532 0.735901 0.000000 0.000000 2.676160
0.200000 0.300000 0.200000 0.934532 0.735901 0.000000 0.000000 2.676160
0.200000 0.300000 0.300000 0.934532 0.735901 0.000000 0.000000 2.676160
0.200000 0.300000 0.400000 0.934532 0.735901 0.000000 0.000000 2.676160
0.200000 0.300000 0.500000 0.934532 0.735901 0.000000 0.000000 2.676160
0.200000 0.300000 0.600000 0.934532 0.735901 0.000000 0.000000 2.676160
0.200000 0.300000 0.700000 0.934532 0.735901 0.000000 0.000000 2.676160
0.200000 0.300000 0.800000 0.934532 0.735901 0.000000 0.000000 2.676160
0.200000 0.300000 0.900000 0.934532 0.735901 0.000000 0.000000 2.676160
0.200000 0.400000 -0.000000 0.934532 0.735901 0.000000 0.000000 2.676160
0.200000 0.400000 0.100000 0.934532 0.735901 0.000000 0.000000 2.676160
0.200000 0.400000 0.200000 0.934532 0.735901 0.000000 0.000000 2.676160
0.200000 0.400000 0.300000 0.934532 0.735901 0.000000 0.000000 2.676160
0.200000 0.400000 0.400000 0.934532 0.735901 0.000000 0.000000 2.676160
0.200000 0.400000 0.500000 0.934532 0.735901 0.000000 0.000000 2.676160
0.200000 0.400000 0.600000 0.934532 0.735901 0.000000 0.000000 2.676160
0.200000 0.400000 0.700000 0.934532 0.735901 0.000000 0.000000 2.676160
0.200000 0.400000 0.800000 0.934532 0.735901 0.000000 0.000000 2.676160
0.200000 0.400000 0.900000 0.934532 0.735901 0.000000 0.000000 2.676160
0.200000 0.500000 -0.000000 0.934532 0.735901 0.000000 0.000000 2.676160
0.200000 0.500000 0.100000 0.934532 0.735901 0.000000 0.000000 2.676160
0.200000 0.500000 0.200000 0.934532 0.735901 0.000000 0.000000 2.676160
0.200000 0.500000 0.300000 0.934532 0.735901 0.000000 0.000000 2.676160
0.200000 0.500000 0.400000 0.934532 0.735901 0.000000 0.000000 2.676160
0.200000 0.500000 0.500000 0.934532 0.735901 0.000000 0.000000 2.676160
0.200000 0.500000 0.600000 0.934532 0.735901 0.000000 0.000000 2.676160
0.200000 0.500000 0.700000 0.934532 0.735901 0.000000 0.000000 2.676160
0.200000 0.500000 0.800000 0.934532 0.735901 0.000000 0.000000 2.676160
0.200000 0.500000 0.900000 0.934532 0.735901 0.000000 0.000000 2.676160
0.200000 0.600000 -0.000000 0.934532 0.735901 0.000000 0.000000 2.676160
0.200000 0.600000 0.100000 0.934532 0.735901 0.000000 0.000000 2.676160
0.200000 0.600000 0.200000 0.934532 0.735901 0.000000 0.000000 2.676160
0.200000 0.600000 0.300000 0.934532 0.735901 0.000000 0.000000 2.676160
0.200000 0.600000 0.400000 0.934532 0.735901 0.000000 0.000000 2.676160
0.200000 0.600000 0.500000 0.934532 0.735901 0.000000 0.000000 2.676160
0.200000 0.600000 0.600000 0.934532 0.735901 0.000000 0.000000 2.676160
0.200000 0.600000 0.700000 0.934532 0.735901 0.000000 0.000000 2.676160
0.200000 0.600000 0.800000 0.934532 0.735901 0.000000 0.000000 2.676160
0.200000 0.600000 0.900000 0.934532 0.735901 0.000000 0.000000 2.676160
0.200000 0.700000 -0.000000 0.934532 0.735901 0.000000 0.000000 2.676160
0.200000 0.700000 0.100000 0.934532 0.735901 0.000000 0.000000 2.676160
0.200000 0.700000 0.200000 0.934532 0.735901 0.000000 0.000000 2.676160
0.200000 0.700000 0.300000 0.934532 0.735901 0.000000 0.000000 2.676160
0.200000 0.700000 0.400000 0.934532 0.735901 0.000000 0.000000 2.676160
0.200000 0.700000 0.500000 0.934532 0.735901 0.000000 0.000000 2.676160
0.200000 0.700000 0.600000 0.934532 0.735901 0.000000 0.000000 2.676160
0.200000 0.700000 0.700000 0.934532 0.735901 0.000000 0.000000 2.676160
0.200000 0.700000 0.800000 0.934532 0.735901 0.000000 0.000000 2.676160
0.200000 0.700000 0.900000 0.934532 0.735901 0.000000 0.000000 2.676160
0.200000 0.800000 -0.000000 0.934532 0.735901 0.000000 0.000000 2.676160
0.200000 0.800000 0.100000 0.934532 0.735901 0.000000 0.000000 2.676160
0.200000 0.800000 0.200000 0.934532 0.735901 0.000000 0.000000 2.676160
0.200000 0.800000 0.300000 0.934532 0.735901 0.000000 0.000000 2.676160
0.200000 0.800000 0.400000 0.934532 0.735901 0.000000 0.000000 2.676160
0.200000 0.800000 0.500000 0.934532 0.735901 0.000000 0.000000 2.676160
0.200000 0.800000 0.600000 0.934532 0.735901 0.000000 0.000000 2.676160
0.200000 0.800000 0.700000 0.934532 0.735901 0.000000 0.000000 2.676160
0.200000 0.800000 0.800000 0.934532 0.735901 0.000000 0.000000 2.676160
0.200000 0.800000 0.900000 0.934532 0.735901 0.000000 0.000000 2.676160
0.200000 0.900000 -0.000000 0.934532 0.735901 0.000000 0.000000 2.676160
0.200000 0.900000 0.100000 0.934532 0.735901 0.000000 0.000000 2.676160
0.200000 0.900000 0.200000 0.934532 0.735901 0.000000 0.000000 2.676160
0.200000 0.900000 0.300000 0.934532 0.735901 0.000000 0.000000 2.676160
0.200000 0.900000 0.400000 0.934532 0.735901 0.000000 0.000000 2.676160
0.200000 0.900000 0.500000 0.934532 0.735901 0.000000 0.000000 2.676160
0.200000 0.900000 0.600000 0.934532 0.735901 0.000000 0.000000 2.676160
0.200000 0.900000 0.700000 0.934532 0.735901 0.000000 0.000000 2.676160
0.200000 0.900000 0.800000 0.934532 0.735901 0.000000 0.000000 2.676160
0.200000 0.900000 0.900000 0.934532 0.735901 0.000000 0.000000 2.676160
0.300000 -0.000000 -0.000000 1.296648 0.738813 0.000000 0.000000 3.432161
0.300000 -0.000000 0.100000 1.296648 0.738813 0.000000 0.000000 3.432161
0.300000 -0.000000 0.200000 1.296648 0.738813 0.000000 0.000000 3.432161
0.300000 -0.000000 0.300000 1.296648 0.738813 0.000000 0.000000 3.432161
0.300000 -0.000000 0.400000 1.296648 0.738813 0.000000 0.000000 3.432161
0.300000 -0.000000 0.500000 1.296648 0.738813 0.000000 0.000000 3.432161
0.300000 -0.000000 0.600000 1.296648 0.738813 0.000000 0.000000 3.432161
0.300000 -0.000000 0.700000 1.296648 0.738813 0.000000 0.000000 3.432161
0.300000 -0.000000 0.800000 1.296648 0.738813 0.000000 0.000000 3.432161
0.300000 -0.000000 0.900000 1.296648 0.738813 0.000000 0.000000 3.432161
0.300000 0.100000 -0.000000 1.296648 0.738813 0.000000 0.000000 3.432161
0.300000 0.100000 0.100000 1.296648 0.738813 0.000000 0.000000 3.432161
0.300000 0.100000 0.200000 1.296648 0.738813 0.000000 0.000000 3.432161
0.300000 0.100000 0.300000 1.296648 0.738813 0.000000 0.000000 3.432161
0.300000 0.100000 0.400000 1.296648 0.738813 0.000000 0.000000 3.432161
0.300000 0.100000 0.500000 1.296648 0.738813 0.000000 0.000000 3.432161
0.300000 0.100000 0.600000 1.296648 0.738813 0.000000 0.000000 3.432161
0.300000 0.100000 0.700000 1.296648 0.738813 0.000000 0.000000 3.432161
0.300000 0.100000 0.800000 1.296648 0.738813 0.000000 0.000000 3.432161
0.300000 0.100000 0.900000 1.296648 0.738813 0.000000 0.000000 3.432161
0.300000 0.200000 -0.000000 1.296648 0.738813 0.000000 0.000000 3.432161
0.300000 0.200000 0.100000 1.296648 0.738813 0.000000 0.000000 3.432161
0.300000 0.200000 0.200000 1.296648 0.738813 0.000000 0.000000 3.432161
0.300000 0.200000 0.300000 1.296648 0.738813 0.000000 0.000000 3.432161
0.300000 0.200000 0.400000 1.296648 0.738813 0.000000 0.000000 3.432161
0.300000 0.200000 0.500000 1.296648 0.738813 0.000000 0.000000 3.432161
0.300000 0.200000 0.600000 1.296648 0.738813 0.000000 0.000000 3.432161
0.300000 0.200000 0.700000 1.296648 0.738813 0.000000 0.000000 3.432161
0.300000 0.200000 0.800000 1.296648 0.738813 0.000000 0.000000 3.432161
0.300000 0.200000 0.900000 1.296648 0.738813 0.000000 0.000000 3.432161
0.300000 0.300000 -0.000000 1.296648 0.738813 0.000000 0.000000 3.432161
0.300000 0.300000 0.100000 1.296648 0.738813 0.000000 0.000000 3.432161
0.300000 0.300000 0.200000 1.296648 0.738813 0.000000 0.000000 3.432161
0.300000 0.300000 0.300000 1.296648 0.738813 0.000000 0.000000 3.432161
0.300000 0.300000 0.400000 1.296648 0.738813 0.000000 0.000000 3.432161
0.300000 0.300000 0.500000 1.296648 0.738813 0.000000 0.000000 3.432161
0.300000 0.300000 0.600000 1.296648 0.738813 0.000000 0.000000 3.432161
0.300000 0.300000 0.700000 1.296648 0.738813 0.000000 0.000000 3.432161
0.300000 0.300000 0.800000 1.296648 0.738813 0.000000 0.000000 3.432161
0.300000 0.300000 0.900000 1.296648 0.738813 0.000000 0.000000 3.432161
0.300000 0.400000 -0.000000 1.296648 0.738813 0.000000 0.000000 3.432161
0.300000 0.400000 0.100000 1.296648 0.738813 0.000000 0.000000 3.432161
0.300000 0.400000 0.200000 1.296648 0.738813 0.000000 0.000000 3.432161
0.300000 0.400000 0.300000 1.296648 0.738813 0.000000 0.000000 3.432161
0.300000 0.400000 0.400000 1.296648 0.738813 0.000000 0.000000 3.432161
0.300000 0.400000 0.500000 1.296648 0.738813 0.000000 0.000000 3.432161
0.300000 0.400000 0.600000 1.296648 0.738813 0.000000 0.000000 3.432161
0.300000 0.400000 0.700000 1.296648 0.738813 0.000000 0.000000 3.432161
0.300000 0.400000 0.800000 1.296648 0.738813 0.000000 0.000000 3.432161
0.300000 0.400000 0.900000 1.296648 0.738813 0.000000 0.000000 3.432161
0.300000 0.500000 -0.000000 1.296648 0.738813 0.000000 0.000000 3.432161
0.300000 0.500000 0.100000 1.296648 0.738813 0.000000 0.000000 3.432161
0.300000 0.500000 0.200000 1.296648 0.738813 0.000000 0.000000 3.432161
0.300000 0.500000 0.300000 1.296648 0.738813 0.000000 0.000000 3.432161
0.300000 0.500000 0.400000 1.296648 0.738813 0.000000 0.000000 3.432161
0.300000 0.500000 0.500000 1.296648 0.738813 0.000000 0.000000 3.432161
0.300000 0.500000 0.600000 1.296648 0.738813 0.000000 0.000000 3.432161
0.300000 0.500000 0.700000 1.296648 0.738813 0.000000 0.000000 3.432161
0.300000 0.500000 0.800000 1.296648 0.738813 0.000000 0.000000 3.432161
0.300000 0.500000 0.900000 1.296648 0.738813 0.000000 0.000000 3.432161
0.300000 0.600000 -0.000000 1.296648 0.738813 0.000000 0.000000 3.432161
0.300000 0.600000 0.100000 1.296648 0.738813 0.000000 0.000000 3.432161
0.300000 0.600000 0.200000 1.296648 0.738813 0.000000 0.000000 3.432161
0.300000 0.600000 0.300000 1.296648 0.738813 0.000000 0.000000 3.432161
0.300000 0.600000 0.400000 1.296648 0.738813 0.000000 0.000000 3.432161
0.300000 0.600000 0.500000 1.296648 0.738813 0.000000 0.000000 3.432161
0.300000 0.600000 0.600000 1.296648 0.738813 0.000000 0.000000 3.432161
0.300000 0.600000 0.700000 1.296648 0.738813 0.000000 0.000000 3.432161
0.300000 0.600000 0.800000 1.296648 0.738813 0.000000 0.000000 3.432161
0.300000 0.600000 0.900000 1.296648 0.738813 0.000000 0.000000 3.432161
0.300000 0.700000 -0.000000 1.296648 0.738813 0.000000 0.000000 3.432161
0.300000 0.700000 0.100000 1.296648 0.738813 0.000000 0.000000 3.432161
0.300000 0.700000 0.200000 1.296648 0.738813 0.000000 0.000000 3.432161
0.300000 0.700000 0.300000 1.296648 0.738813 0.000000 0.000000 3.432161
0.300000 0.700000 0.400000 1.296648 0.738813 0.000000 0.000000 3.432161
0.300000 0.700000 0.500000 1.296648 0.738813 0.000000 0.000000 3.432161
0.300000 0.700000 0.600000 1.296648 0.738813 0.000000 0.000000 3.432161
0.300000 0.700000 0.700000 1.296648 0.738813 0.000000 0.000000 3.432161
0.300000 0.700000 0.800000 1.296648 0.738813 0.000000 0.000000 3.432161
0.300000 0.700000 0.900000 1.296648 0.738813 0.000000 0.000000 3.432161
0.300000 0.800000 -0.000000 1.296648 0.738813 0.000000 0.000000 3.432161
0.300000 0.800000 0.100000 1.296648 0.738813 0.000000 0.000000 3.432161
0.300000 0.800000 0.200000 1.296648 0.738813 0.000000 0.000000 3.432161
0.300000 0.800000 0.300000 1.296648 0.738813 0.000000 0.000000 3.432161
0.300000 0.800000 0.400000 1.296648 0.738813 0.000000 0.000000 3.432161
0.300000 0.800000 0.500000 1.296648 0.738813 0.000000 0.000000 3.432161
0.300000 0.800000 0.600000 1.296648 0.738813 0.000000 0.000000 3.432161
0.300000 0.800000 0.700000 1.296648 0.738813 0.000000 0.000000 3.432161
0.300000 0.800000 0.800000 1.296648 0.738813 0.000000 0.000000 3.432161
0.300000 0.800000 0.900000 1.296648 0.738813 0.000000 0.000000 3.432161
0.300000 0.900000 -0.000000 1.296648 0.738813 0.000000 0.000000 3.432161
0.300000 0.900000 0.100000 1.296648 0.738813 0.000000 0.000000 3.432161
0.300000 0.900000 0.200000 1.296648 0.738813 0.000000 0.000000 3.432161
0.300000 0.900000 0.300000 1.296648 0.738813 0.000000 0.000000 3.432161
0.300000 0.900000 0.400000 1.296648 0.738813 0.000000 0.000000 3.432161
0.300000 0.900000 0.500000 1.296648 0.738813 0.000000 0.000000 3.432161
0.300000 0.900000 0.600000 1.296648 0.738813 0.000000 0.000000 3.432161
0.300000 0.900000 0.700000 1.296648 0.738813 0.000000 0.000000 3.432161
0.300000 0.900000 0.800000 1.296648 0.738813 0.000000 0.000000 3.432161
0.300000 0.900000 0.900000 1.296648 0.738813 0.000000 0.000000 3.432161
0.400000 -0.000000 -0.000000 0.572871 0.790396 0.000000 0.000000 1.550826
0.400000 -0.000000 0.100000 0.572871 0.790396 0.000000 0.000000 1.550826
0.400000 -0.000000 0.200000 0.572871 0.790396 0.000000 0.000000 1.550826
0.400000 -0.000000 0.300000 0.572871 0.790396 0.000000 0.000000 1.550826
0.400000 -0.000000 0.400000 0.572871 0.790396 0.000000 0.000000 1.550826
0.400000 -0.000000 0.500000 0.572871 0.790396 0.000000 0.000000 1.550826
0.400000 -0.000000 0.600000 0.572871 0.790396 0.000000 0.000000 1.550826
0.400000 -0.000000 0.700000 0.572871 0.790396 0.000000 0.000000 1.550826
0.400000 -0.000000 0.800000 0.572871 0.790396 0.000000 0.000000 1.550826
0.400000 -0.000000 0.900000 0.572871 0.790396 0.000000 0.000000 1.550826
0.400000 0.100000 -0.000000 0.572871 0.790396 0.000000 0.000000 1.550826