VARIABLES="x","ro","u","p","e","ro_ex","u_ex","p_ex","e_ex"
TITLE="Primitive variables field t = 0.15"
ZONE T="Numerical", I=3 F=POINT
0.000000 0.771553 -1.912805 0.306351 0.992643 1.000000 -2.000000 0.400000 1.000000
0.333333 0.394087 -1.790907 0.156607 0.993482 0.103540 -0.635650 0.016719 0.403685
0.666667 0.394087 1.790907 0.156607 0.993482 0.103540 0.635650 0.016719 0.403685
